version 3
run Uniform-6-20241223-18:10:27-19396
attr configname Uniform
attr datetime 20241223-18:10:27
attr datetimef 20241223-181027
attr experiment Uniform
attr inifile omnetpp.ini
attr iterationvars ""
attr iterationvarsd ""
attr iterationvarsf ""
attr measurement ""
attr network EdgeComputingNetwork
attr processid 19396
attr repetition 6
attr replication #6
attr resultdir results
attr runnumber 6
attr seedset 6
config description "Unifrom distribution of users"
config **.users[*].uniformDistribution true
config network EdgeComputingNetwork
config sim-time-limit 100s
config num-rngs 4
config **.users[*].rng-0 0
config **.users[*].rng-1 1
config **.users[*].rng-2 2
config **.users[*].rng-3 3
config seed-set 6
config repeat 10
config **.width 100
config **.height 100
config **.numBaseStations 2
config **.numUsers 3
config **.baseStations[*].serviceRate 1
config **.baseStations[*].delay 0.100
config **.baseStations[*].queueSize 10
config **.baseStations[*].locallyManaged false
config **.users[*].intervalRate 1/10
config **.users[*].sizeRate 1/10

vector 0 EdgeComputingNetwork.baseStations[0] queueLength:vector ETV
attr recordingmode vector
attr source queueLengthSignal
vector 1 EdgeComputingNetwork.baseStations[1] queueLength:vector ETV
attr recordingmode vector
attr source queueLengthSignal
vector 2 EdgeComputingNetwork.baseStations[1] responseTime:vector ETV
attr recordingmode vector
attr source responseTimeSignal
vector 3 EdgeComputingNetwork.baseStations[0] responseTime:vector ETV
attr recordingmode vector
attr source responseTimeSignal
0	0	0	0
0	6	0.124866072102	1
0	7	0.173270222489	2
0	13	8.124866072102	1
0	14	16.124866072102	0
0	16	16.976385105896	1
0	19	20.023218305755	2
0	25	28.141340699653	3
0	29	32.976376573743	4
0	34	36.976385105896	3
0	42	56.976385105896	2
0	43	57.976385105896	1
0	44	59.976385105896	0
0	47	62.6404384266	1
0	51	71.6404384266	0
0	53	71.828546672692	1
0	58	74.450392357835	2
0	59	75.828546672692	1
0	63	79.828546672692	0
0	69	85.36982552067	1
0	73	88.36982552067	0
0	76	89.65502331063	1
1	0	0	0
1	2	0.036807532807	1
1	8	3.036807532807	0
1	10	5.583214076236	1
1	12	6.627960364	2
1	20	20.583214076236	1
1	23	23.386707389811	2
1	27	30.224900615284	3
1	31	33.704135781241	4
1	32	35.583214076236	3
1	33	36.583214076236	2
1	35	38.583214076236	1
1	37	40.172994158897	2
1	38	41.583214076236	1
1	39	47.583214076236	0
1	41	52.090717463092	1
1	49	64.894056937274	2
1	50	65.090717463092	1
1	55	73.173222248113	2
1	60	78.090717463092	1
1	62	78.337018201115	2
1	64	80.090717463092	1
1	65	81.090717463092	0
1	67	85.231369519591	1
1	70	87.231369519591	0
1	72	88.333008731601	1
1	74	89.333008731601	0
2	8	3.036807532807	3
2	20	20.583214076236	15
2	32	35.583214076236	28.955253712236
2	33	36.583214076236	13.296506686425
2	35	38.583214076236	8.358313460952
2	38	41.583214076236	7.879078294995
2	39	47.583214076236	7.410219917339
2	50	65.090717463092	13
2	60	78.090717463092	13.196660525818
2	64	80.090717463092	6.917495214979
2	65	81.090717463092	2.753699261977
2	70	87.231369519591	2
2	74	89.333008731601	1
3	13	8.124866072102	8
3	14	16.124866072102	16.051595849613
3	34	36.976385105896	20
3	42	56.976385105896	37.053166800141
3	43	57.976385105896	29.835044406243
3	44	59.976385105896	27.000008532153
3	51	71.6404384266	9.1
3	59	75.828546672692	4
3	63	79.828546672692	5.478154314857
3	73	88.36982552067	3

