version 3
run Uniform-2-20241223-18:10:27-19396
attr configname Uniform
attr datetime 20241223-18:10:27
attr datetimef 20241223-181027
attr experiment Uniform
attr inifile omnetpp.ini
attr iterationvars ""
attr iterationvarsd ""
attr iterationvarsf ""
attr measurement ""
attr network EdgeComputingNetwork
attr processid 19396
attr repetition 2
attr replication #2
attr resultdir results
attr runnumber 2
attr seedset 2
config description "Unifrom distribution of users"
config **.users[*].uniformDistribution true
config network EdgeComputingNetwork
config sim-time-limit 100s
config num-rngs 4
config **.users[*].rng-0 0
config **.users[*].rng-1 1
config **.users[*].rng-2 2
config **.users[*].rng-3 3
config seed-set 2
config repeat 10
config **.width 100
config **.height 100
config **.numBaseStations 2
config **.numUsers 3
config **.baseStations[*].serviceRate 1
config **.baseStations[*].delay 0.100
config **.baseStations[*].queueSize 10
config **.baseStations[*].locallyManaged false
config **.users[*].intervalRate 1/10
config **.users[*].sizeRate 1/10

vector 0 EdgeComputingNetwork.baseStations[0] queueLength:vector ETV
attr recordingmode vector
attr source queueLengthSignal
vector 1 EdgeComputingNetwork.baseStations[1] queueLength:vector ETV
attr recordingmode vector
attr source queueLengthSignal
vector 2 EdgeComputingNetwork.baseStations[1] responseTime:vector ETV
attr recordingmode vector
attr source responseTimeSignal
vector 3 EdgeComputingNetwork.baseStations[0] responseTime:vector ETV
attr recordingmode vector
attr source responseTimeSignal
0	0	0	0
0	4	0.035490673455	1
0	9	0.444217259577	2
0	11	0.743008220904	3
0	18	6.96465033541	4
0	19	10.035490673455	3
0	30	17.934175111494	4
0	31	20.035490673455	3
0	34	20.492298254142	4
0	42	30.481706441722	5
0	45	33.035490673455	4
0	59	50.035490673455	3
0	61	52.035490673455	2
0	63	61.47970552648	3
0	67	66.035490673455	2
0	68	69.035490673455	1
0	71	70.025390287861	2
0	72	70.035490673455	1
0	75	71.176537073308	2
0	84	78.472543757478	3
0	85	86.035490673455	2
0	86	90.035490673455	1
0	89	91.184382597145	2
0	91	97.005847794276	3
0	92	97.035490673455	2
0	95	97.932442610687	3
0	97	98.810120715886	4
0	98	99.035490673455	3
1	0	0	0
1	2	0.002097029429	1
1	6	0.147543444498	2
1	13	1.989895911166	3
1	15	4.148045891679	4
1	16	6.002097029429	3
1	21	11.272119499256	4
1	22	12.002097029429	3
1	24	16.722902284397	4
1	25	17.002097029429	3
1	27	17.055485277717	4
1	36	20.520930135686	5
1	37	23.002097029429	4
1	39	23.699665718706	5
1	43	31.002097029429	4
1	44	32.002097029429	3
1	48	33.139863323209	4
1	49	34.002097029429	3
1	51	43.187392075455	4
1	53	44.16145320205	5
1	54	46.002097029429	4
1	55	47.002097029429	3
1	57	47.87913417115	4
1	58	50.002097029429	3
1	60	51.002097029429	2
1	64	62.002097029429	1
1	66	63.185799732328	2
1	76	73.002097029429	1
1	79	74.671722732699	2
1	81	75.695113876952	3
1	100	99.943594745307	4
2	16	6.002097029429	6
2	22	12.002097029429	11.854553584931
2	25	17.002097029429	15.012201118263
2	37	23.002097029429	18.85405113775
2	43	31.002097029429	19.729977530173
2	44	32.002097029429	15.279194745032
2	49	34.002097029429	16.946611751712
2	54	46.002097029429	25.481166893743
2	55	47.002097029429	23.302431310723
2	58	50.002097029429	16.96223370622
2	60	51.002097029429	7.814704953974
2	64	62.002097029429	17.840643827379
2	76	73.002097029429	25.122962858279
3	19	10.035490673455	10
3	31	20.035490673455	19.691273413878
3	45	33.035490673455	32.292482452551
3	59	50.035490673455	43.070840338045
3	61	52.035490673455	34.201315561961
3	67	66.035490673455	45.643192419313
3	68	69.035490673455	38.653784231733
3	72	70.035490673455	8.555785146975
3	85	86.035490673455	16.110100385594
3	86	90.035490673455	18.958953600147
3	92	97.035490673455	18.662946915977
3	98	99.035490673455	7.95110807631

