version 3
run Uniform-1-20241223-18:10:27-19396
attr configname Uniform
attr datetime 20241223-18:10:27
attr datetimef 20241223-181027
attr experiment Uniform
attr inifile omnetpp.ini
attr iterationvars ""
attr iterationvarsd ""
attr iterationvarsf ""
attr measurement ""
attr network EdgeComputingNetwork
attr processid 19396
attr repetition 1
attr replication #1
attr resultdir results
attr runnumber 1
attr seedset 1
config description "Unifrom distribution of users"
config **.users[*].uniformDistribution true
config network EdgeComputingNetwork
config sim-time-limit 100s
config num-rngs 4
config **.users[*].rng-0 0
config **.users[*].rng-1 1
config **.users[*].rng-2 2
config **.users[*].rng-3 3
config seed-set 1
config repeat 10
config **.width 100
config **.height 100
config **.numBaseStations 2
config **.numUsers 3
config **.baseStations[*].serviceRate 1
config **.baseStations[*].delay 0.100
config **.baseStations[*].queueSize 10
config **.baseStations[*].locallyManaged false
config **.users[*].intervalRate 1/10
config **.users[*].sizeRate 1/10

vector 0 EdgeComputingNetwork.baseStations[0] queueLength:vector ETV
attr recordingmode vector
attr source queueLengthSignal
vector 1 EdgeComputingNetwork.baseStations[1] queueLength:vector ETV
attr recordingmode vector
attr source queueLengthSignal
vector 2 EdgeComputingNetwork.baseStations[1] responseTime:vector ETV
attr recordingmode vector
attr source responseTimeSignal
vector 3 EdgeComputingNetwork.baseStations[0] responseTime:vector ETV
attr recordingmode vector
attr source responseTimeSignal
0	0	0	0
0	7	0.323362025781	1
0	8	0.394648652166	2
0	24	17.323362025781	1
0	29	21.612668411477	2
0	36	34.323362025781	1
0	38	35.323362025781	0
0	41	36.090685812067	1
0	46	43.044596136056	2
0	47	43.090685812067	1
0	53	43.95197631016	2
0	58	47.238105712371	3
0	62	50.090685812067	2
0	66	56.090685812067	1
0	69	56.731617213088	2
0	72	59.688879673172	3
0	79	73.090685812067	2
0	82	74.350395422707	3
0	87	76.654087378042	4
0	92	79.341709925013	5
0	97	87.090685812067	4
0	102	90.498804112812	5
0	107	94.090685812067	4
0	108	96.090685812067	3
0	111	97.145037631815	4
1	0	0	0
1	2	0.040343687303	1
1	10	0.83411280199	2
1	11	2.040343687303	1
1	13	2.802511772626	2
1	14	4.040343687303	1
1	16	4.675634721147	2
1	17	5.040343687303	1
1	19	8.572330296849	2
1	20	9.040343687303	1
1	21	10.040343687303	0
1	23	15.432235554252	1
1	26	21.426515635961	2
1	30	24.432235554252	1
1	32	25.194546140991	2
1	34	32.927188937917	3
1	35	33.432235554252	2
1	37	34.432235554252	1
1	43	42.944592061598	2
1	48	43.432235554252	1
1	50	43.692382620684	2
1	55	46.977722836341	3
1	59	48.432235554252	2
1	61	49.128836276098	3
1	63	52.432235554252	2
1	65	54.067227764524	3
1	73	61.432235554252	2
1	75	65.437536706552	3
1	76	66.432235554252	2
1	78	69.45484631589	3
1	84	75.8719804843	4
1	89	76.942052209826	5
1	93	79.432235554252	4
1	95	80.340871043417	5
1	96	83.432235554252	4
1	99	87.77280726575	5
1	103	91.432235554252	4
1	104	92.432235554252	3
1	106	92.798972108053	4
1	113	99.61554112693	5
2	11	2.040343687303	2
2	14	4.040343687303	3.206230885313
2	17	5.040343687303	2.237831914677
2	20	9.040343687303	4.364708966156
2	21	10.040343687303	1.468013390454
2	30	24.432235554252	9
2	35	33.432235554252	12.005719918291
2	37	34.432235554252	9.237689413261
2	48	43.432235554252	10.505046616335
2	59	48.432235554252	5.487643492654
2	63	52.432235554252	8.739852933568
2	73	61.432235554252	14.454512717911
2	76	66.432235554252	17.303399278154
2	93	79.432235554252	25.365007789728
2	96	83.432235554252	17.9946988477
2	103	91.432235554252	21.977389238362
2	104	92.432235554252	16.560255069952
3	24	17.323362025781	17.1
3	36	34.323362025781	34.028713373615
3	38	35.323362025781	13.810693614304
3	47	43.090685812067	7.1
3	62	50.090685812067	7.146089676011
3	66	56.090685812067	12.238709501907
3	79	73.090685812067	25.952580099696
3	97	87.090685812067	30.459068598979
3	107	94.090685812067	34.501806138895
3	108	96.090685812067	21.84029038936

