version 3
run Uniform-0-20241223-18:10:27-19396
attr configname Uniform
attr datetime 20241223-18:10:27
attr datetimef 20241223-181027
attr experiment Uniform
attr inifile omnetpp.ini
attr iterationvars ""
attr iterationvarsd ""
attr iterationvarsf ""
attr measurement ""
attr network EdgeComputingNetwork
attr processid 19396
attr repetition 0
attr replication #0
attr resultdir results
attr runnumber 0
attr seedset 0
config description "Unifrom distribution of users"
config **.users[*].uniformDistribution true
config network EdgeComputingNetwork
config sim-time-limit 100s
config num-rngs 4
config **.users[*].rng-0 0
config **.users[*].rng-1 1
config **.users[*].rng-2 2
config **.users[*].rng-3 3
config seed-set 0
config repeat 10
config **.width 100
config **.height 100
config **.numBaseStations 2
config **.numUsers 3
config **.baseStations[*].serviceRate 1
config **.baseStations[*].delay 0.100
config **.baseStations[*].queueSize 10
config **.baseStations[*].locallyManaged false
config **.users[*].intervalRate 1/10
config **.users[*].sizeRate 1/10

vector 0 EdgeComputingNetwork.baseStations[0] queueLength:vector ETV
attr recordingmode vector
attr source queueLengthSignal
vector 1 EdgeComputingNetwork.baseStations[1] queueLength:vector ETV
attr recordingmode vector
attr source queueLengthSignal
vector 2 EdgeComputingNetwork.baseStations[0] responseTime:vector ETV
attr recordingmode vector
attr source responseTimeSignal
vector 3 EdgeComputingNetwork.baseStations[1] responseTime:vector ETV
attr recordingmode vector
attr source responseTimeSignal
0	0	0	0
0	7	0.120466788428	1
0	8	0.157269198963	2
0	11	7.120466788428	1
0	14	8.105450732611	2
0	19	12.472347651381	3
0	22	14.120466788428	2
0	25	19.176601456581	3
0	28	19.622750624957	4
0	33	25.368607373071	5
0	41	27.314664971959	6
0	46	32.485753107964	7
0	51	33.996352859117	8
0	56	41.520909919175	9
0	59	43.120466788428	8
0	62	43.395094164035	9
0	65	43.922110685427	10
0	66	49.120466788428	9
0	69	49.498482819985	10
0	75	52.120466788428	9
0	78	53.120466788428	8
0	81	54.941717406683	9
0	82	55.120466788428	8
0	85	56.754483038874	9
0	92	64.120466788428	8
0	96	66.219705524872	9
0	101	68.909325791053	10
0	102	70.120466788428	9
0	105	77.093121647148	10
0	108	80.120466788428	9
0	121	93.356093157833	10
0	127	97.120466788428	9
1	0	0	0
1	2	0.002626823685	1
1	10	0.753971168072	2
1	16	11.443104815578	3
1	21	12.736547430486	4
1	30	21.160245262792	5
1	35	25.457867194504	6
1	36	26.002626823685	5
1	38	26.799872684608	6
1	43	29.537048796647	7
1	48	32.914142284749	8
1	53	39.709009679663	9
1	58	41.724225916573	10
1	74	52.002626823685	9
1	77	52.286394638654	10
1	86	57.002626823685	9
1	88	59.872278251622	10
1	89	62.002626823685	9
1	91	63.439747326713	10
1	93	66.002626823685	9
1	98	66.362446829238	10
1	106	78.002626823685	9
1	107	79.002626823685	8
1	110	80.879371324776	9
1	111	82.002626823685	8
1	113	83.880325258199	9
1	114	85.002626823685	8
1	116	87.892928841955	9
1	118	89.028003135953	10
1	122	94.002626823685	9
1	124	96.590213603095	10
2	11	7.120466788428	7.1
2	22	14.120466788428	14.063197589465
2	59	43.120466788428	35.115016055817
2	66	49.120466788428	36.748119137047
2	75	52.120466788428	33.043865331847
2	78	53.120466788428	33.597716163471
2	82	55.120466788428	29.851859415357
2	92	64.120466788428	36.905801816469
2	102	70.120466788428	37.734713680464
2	108	80.120466788428	46.224113929311
2	127	97.120466788428	55.699556869253
3	36	26.002626823685	26
3	74	52.002626823685	51.248655655613
3	86	57.002626823685	45.559522008107
3	89	62.002626823685	49.266079393199
3	93	66.002626823685	44.842381560893
3	106	78.002626823685	52.544759629181
3	107	79.002626823685	52.202754139077
3	111	82.002626823685	52.465578027038
3	114	85.002626823685	52.088484538936
3	122	94.002626823685	54.293617144022

