version 3
run Uniform-3-20241223-18:10:27-19396
attr configname Uniform
attr datetime 20241223-18:10:27
attr datetimef 20241223-181027
attr experiment Uniform
attr inifile omnetpp.ini
attr iterationvars ""
attr iterationvarsd ""
attr iterationvarsf ""
attr measurement ""
attr network EdgeComputingNetwork
attr processid 19396
attr repetition 3
attr replication #3
attr resultdir results
attr runnumber 3
attr seedset 3
config description "Unifrom distribution of users"
config **.users[*].uniformDistribution true
config network EdgeComputingNetwork
config sim-time-limit 100s
config num-rngs 4
config **.users[*].rng-0 0
config **.users[*].rng-1 1
config **.users[*].rng-2 2
config **.users[*].rng-3 3
config seed-set 3
config repeat 10
config **.width 100
config **.height 100
config **.numBaseStations 2
config **.numUsers 3
config **.baseStations[*].serviceRate 1
config **.baseStations[*].delay 0.100
config **.baseStations[*].queueSize 10
config **.baseStations[*].locallyManaged false
config **.users[*].intervalRate 1/10
config **.users[*].sizeRate 1/10

vector 0 EdgeComputingNetwork.baseStations[0] queueLength:vector ETV
attr recordingmode vector
attr source queueLengthSignal
vector 1 EdgeComputingNetwork.baseStations[1] queueLength:vector ETV
attr recordingmode vector
attr source queueLengthSignal
vector 2 EdgeComputingNetwork.baseStations[0] responseTime:vector ETV
attr recordingmode vector
attr source responseTimeSignal
vector 3 EdgeComputingNetwork.baseStations[1] responseTime:vector ETV
attr recordingmode vector
attr source responseTimeSignal
0	0	0	0
0	2	0.072143007641	1
0	6	0.254968120933	2
0	10	10.072143007641	1
0	12	11.175106849401	2
0	14	11.734074208554	3
0	21	17.397438979181	4
0	23	18.964831405038	5
0	24	20.072143007641	4
0	29	24.072143007641	3
0	30	25.072143007641	2
0	31	28.072143007641	1
0	33	28.169037454914	2
0	35	28.421733855815	3
0	36	30.072143007641	2
0	38	32.073398709711	3
0	41	34.11706498001	4
0	42	37.072143007641	3
0	45	37.747938974976	4
0	46	40.072143007641	3
0	50	44.072143007641	2
0	55	46.273903001301	3
0	60	49.349877304509	4
0	63	51.072143007641	3
0	65	51.533330654089	4
0	67	51.863683013603	5
0	71	58.072143007641	4
0	72	60.072143007641	3
0	74	61.902827963669	4
0	76	69.940734247147	5
0	83	76.072143007641	4
0	86	77.945447483092	5
0	87	80.072143007641	4
0	88	87.072143007641	3
0	91	94.400217476919	4
0	93	94.63119895674	5
1	0	0	0
1	4	0.148353261831	1
1	9	2.326022214589	2
1	17	13.010500788003	3
1	19	16.945908309168	4
1	25	20.148353261831	3
1	28	20.718806727048	4
1	47	40.148353261831	3
1	48	41.148353261831	2
1	49	43.148353261831	1
1	53	45.188980710158	2
1	58	48.757856407184	3
1	62	50.37492113181	4
1	70	55.030930065816	5
1	77	74.148353261831	4
1	80	74.653287908057	5
1	82	75.340248842387	6
1	84	77.148353261831	5
1	89	88.148353261831	4
1	94	95.148353261831	3
1	97	97.095394129313	4
1	98	97.148353261831	3
1	99	98.148353261831	2
1	102	99.988793096447	3
2	10	10.072143007641	10
2	24	20.072143007641	19.817174886708
2	29	24.072143007641	12.89703615824
2	30	25.072143007641	13.338068799087
2	31	28.072143007641	10.67470402846
2	36	30.072143007641	11.107311602603
2	42	37.072143007641	8.903105552727
2	46	40.072143007641	11.650409151826
2	50	44.072143007641	11.99874429793
2	63	51.072143007641	17.055078027631
2	71	58.072143007641	20.424204032665
2	72	60.072143007641	13.79824000634
2	83	76.072143007641	26.722265703132
2	87	80.072143007641	28.538812353552
2	88	87.072143007641	35.208459994038
3	25	20.148353261831	20
3	47	40.148353261831	37.922331047242
3	48	41.148353261831	28.237852473828
3	49	43.148353261831	26.202444952663
3	77	74.148353261831	53.529546534783
3	84	77.148353261831	32.059372551673
3	89	88.148353261831	39.490496854647
3	94	95.148353261831	44.773432130021
3	98	97.148353261831	42.217423196015
3	99	98.148353261831	23.595065353774

