version 3
run Uniform-0-20241212-19:49:08-6556
attr configname Uniform
attr datetime 20241212-19:49:08
attr datetimef 20241212-194908
attr experiment Uniform
attr inifile omnetpp.ini
attr iterationvars ""
attr iterationvarsd ""
attr iterationvarsf ""
attr measurement ""
attr network EdgeComputingNetwork
attr processid 6556
attr repetition 0
attr replication #0
attr resultdir results
attr runnumber 0
attr seedset 0
config description "Unifrom distribution of users"
config **.users[*].uniformDistribution true
config network EdgeComputingNetwork
config sim-time-limit 100s
config num-rngs 4
config seed-set 0
config repeat 10
config **.width 100
config **.height 100
config **.numBaseStations 2
config **.numUsers 3
config **.baseStations[*].serviceRate 1
config **.baseStations[*].delay 0.100
config **.baseStations[*].queueSize 10
config **.users[*].intervalRate 10
config **.users[*].sizeRate 10

vector 0 EdgeComputingNetwork.baseStations[0] queueLength:vector ETV
attr recordingmode vector
attr source queueLengthSignal
vector 1 EdgeComputingNetwork.baseStations[1] queueLength:vector ETV
attr recordingmode vector
attr source queueLengthSignal
vector 2 EdgeComputingNetwork.baseStations[1] responseTime:vector ETV
attr recordingmode vector
attr source responseTimeSignal
vector 3 EdgeComputingNetwork.baseStations[0] responseTime:vector ETV
attr recordingmode vector
attr source responseTimeSignal
0	0	0	0
0	35	40.079952826353	1
0	36	42.079952826353	0
0	39	43.780050318547	1
0	42	44.621674940876	2
0	43	45.780050318547	1
0	46	46.719253014996	2
0	49	46.883789974757	3
0	51	47.780050318547	2
0	52	48.780050318547	1
0	53	49.780050318547	0
0	67	63.933740915965	1
0	71	69.933740915965	0
0	74	70.518593807925	1
0	77	71.140530529145	2
0	78	72.518593807925	1
0	81	72.557394977537	2
0	82	74.518593807925	1
0	85	76.752493018014	2
0	86	77.518593807925	1
0	89	79.743268318478	2
0	90	81.518593807925	1
0	93	83.861413670415	2
0	96	87.944167905179	3
0	100	92.518593807925	2
0	106	96.993363216721	3
0	107	98.518593807925	2
0	110	98.941167170083	3
0	113	98.983062630181	4
0	116	99.771130425143	5
1	0	0	0
1	2	0.262682368466	1
1	4	2.046678842764	2
1	6	5.726919896272	3
1	7	8.262682368466	2
1	9	10.024258081767	3
1	11	15.739261263001	4
1	12	16.262682368466	3
1	13	17.262682368466	2
1	15	22.370274314383	3
1	17	27.077864973031	4
1	19	27.823889486562	5
1	20	29.262682368466	4
1	22	30.942381663249	5
1	24	31.833663719802	6
1	26	32.619785575148	7
1	28	34.123376667124	8
1	30	35.240363623046	9
1	32	36.518135352303	10
1	50	47.262682368466	9
1	54	50.262682368466	8
1	55	51.262682368466	7
1	57	54.638465498052	8
1	59	56.424975596409	9
1	60	58.262682368466	8
1	62	62.170454583151	9
1	64	63.615857324338	10
1	68	66.262682368466	9
1	70	67.914330713782	10
1	97	88.262682368466	9
1	99	91.762561964448	10
1	101	93.262682368466	9
1	103	94.76103573822	10
2	7	8.262682368466	16
2	12	16.262682368466	15.216003525702
2	13	17.262682368466	23.535762472194
2	20	29.262682368466	37.238424286699
2	50	47.262682368466	34.523421105465
2	54	50.262682368466	28.892408054083
2	55	51.262682368466	31.184817395435
2	60	58.262682368466	38.438792881904
2	68	66.262682368466	57.320300705217
2	97	88.262682368466	61.429018648664
2	101	93.262682368466	82.642896793318
3	36	42.079952826353	4
3	43	45.780050318547	4
3	51	47.780050318547	4.158375377671
3	52	48.780050318547	3.060797303551
3	53	49.780050318547	7.89626034379
3	71	69.933740915965	12
3	78	72.518593807925	4
3	82	74.518593807925	6.37806327878
3	86	77.518593807925	8.961198830388
3	90	81.518593807925	15.766100789911
3	100	92.518593807925	18.775325489447
3	107	98.518593807925	22.65718013751

