version 3
run Uniform-5-20241223-18:10:27-19396
attr configname Uniform
attr datetime 20241223-18:10:27
attr datetimef 20241223-181027
attr experiment Uniform
attr inifile omnetpp.ini
attr iterationvars ""
attr iterationvarsd ""
attr iterationvarsf ""
attr measurement ""
attr network EdgeComputingNetwork
attr processid 19396
attr repetition 5
attr replication #5
attr resultdir results
attr runnumber 5
attr seedset 5
config description "Unifrom distribution of users"
config **.users[*].uniformDistribution true
config network EdgeComputingNetwork
config sim-time-limit 100s
config num-rngs 4
config **.users[*].rng-0 0
config **.users[*].rng-1 1
config **.users[*].rng-2 2
config **.users[*].rng-3 3
config seed-set 5
config repeat 10
config **.width 100
config **.height 100
config **.numBaseStations 2
config **.numUsers 3
config **.baseStations[*].serviceRate 1
config **.baseStations[*].delay 0.100
config **.baseStations[*].queueSize 10
config **.baseStations[*].locallyManaged false
config **.users[*].intervalRate 1/10
config **.users[*].sizeRate 1/10

vector 0 EdgeComputingNetwork.baseStations[0] queueLength:vector ETV
attr recordingmode vector
attr source queueLengthSignal
vector 1 EdgeComputingNetwork.baseStations[1] queueLength:vector ETV
attr recordingmode vector
attr source queueLengthSignal
vector 2 EdgeComputingNetwork.baseStations[0] responseTime:vector ETV
attr recordingmode vector
attr source responseTimeSignal
vector 3 EdgeComputingNetwork.baseStations[1] responseTime:vector ETV
attr recordingmode vector
attr source responseTimeSignal
0	0	0	0
0	7	0.16571645102	1
0	8	0.221053756724	2
0	9	5.16571645102	1
0	14	9.452463446826	2
0	15	10.16571645102	1
0	18	11.22502004077	2
0	20	20.16571645102	1
0	28	27.272116265703	2
0	33	29.770140934223	3
0	36	35.16571645102	2
0	39	35.421050537765	3
0	40	36.16571645102	2
0	43	37.007290155396	3
0	46	37.249938212165	4
0	51	40.539057852376	5
0	56	42.233022236666	6
0	64	50.188454123186	7
0	67	58.16571645102	6
0	70	59.278779726707	7
0	71	60.16571645102	6
0	72	61.16571645102	5
0	74	63.16571645102	4
0	77	64.236005634098	5
0	79	69.16571645102	4
0	85	74.651143493459	5
0	86	74.651974465626	6
0	90	85.16571645102	5
0	93	86.16571645102	4
0	96	94.765464532286	5
1	0	0	0
1	2	0.023377554243	1
1	11	7.306933065936	2
1	19	13.023377554243	1
1	22	23.853744457896	2
1	23	26.023377554243	1
1	25	26.342931415568	2
1	30	29.488634106458	3
1	35	34.87394036807	4
1	48	37.958896834972	5
1	53	41.260839153867	6
1	57	45.023377554243	5
1	59	47.442116768456	6
1	61	50.063774913653	7
1	66	53.006718427428	8
1	73	63.023377554243	7
1	78	67.023377554243	6
1	80	70.023377554243	5
1	88	78.124578272936	6
1	89	81.023377554243	5
1	92	85.759676542991	6
1	97	97.023377554243	5
1	98	98.023377554243	4
2	9	5.16571645102	5.1
2	15	10.16571645102	10.044662694296
2	20	20.16571645102	10.813253004194
2	36	35.16571645102	24.04069641025
2	40	36.16571645102	8.993600185317
2	67	58.16571645102	28.495575516797
2	71	60.16571645102	24.844665913255
2	72	61.16571645102	24.258426295624
2	74	63.16571645102	26.015778238855
2	79	69.16571645102	28.726658598644
2	90	85.16571645102	43.032694214354
2	93	86.16571645102	36.077262327834
3	19	13.023377554243	13
3	23	26.023377554243	18.716444488307
3	57	45.023377554243	21.169633096347
3	73	63.023377554243	36.680446138675
3	78	67.023377554243	37.534743447785
3	80	70.023377554243	35.149437186173
3	89	81.023377554243	43.064480719271
3	97	97.023377554243	55.762538400376
3	98	98.023377554243	50.581260785787

