version 3
run Uniform-8-20241223-18:10:27-19396
attr configname Uniform
attr datetime 20241223-18:10:27
attr datetimef 20241223-181027
attr experiment Uniform
attr inifile omnetpp.ini
attr iterationvars ""
attr iterationvarsd ""
attr iterationvarsf ""
attr measurement ""
attr network EdgeComputingNetwork
attr processid 19396
attr repetition 8
attr replication #8
attr resultdir results
attr runnumber 8
attr seedset 8
config description "Unifrom distribution of users"
config **.users[*].uniformDistribution true
config network EdgeComputingNetwork
config sim-time-limit 100s
config num-rngs 4
config **.users[*].rng-0 0
config **.users[*].rng-1 1
config **.users[*].rng-2 2
config **.users[*].rng-3 3
config seed-set 8
config repeat 10
config **.width 100
config **.height 100
config **.numBaseStations 2
config **.numUsers 3
config **.baseStations[*].serviceRate 1
config **.baseStations[*].delay 0.100
config **.baseStations[*].queueSize 10
config **.baseStations[*].locallyManaged false
config **.users[*].intervalRate 1/10
config **.users[*].sizeRate 1/10

vector 0 EdgeComputingNetwork.baseStations[0] queueLength:vector ETV
attr recordingmode vector
attr source queueLengthSignal
vector 1 EdgeComputingNetwork.baseStations[1] queueLength:vector ETV
attr recordingmode vector
attr source queueLengthSignal
vector 2 EdgeComputingNetwork.baseStations[0] responseTime:vector ETV
attr recordingmode vector
attr source responseTimeSignal
vector 3 EdgeComputingNetwork.baseStations[1] responseTime:vector ETV
attr recordingmode vector
attr source responseTimeSignal
0	0	0	0
0	4	0.021786233996	1
0	6	0.151458447191	2
0	7	1.021786233996	1
0	8	2.021786233996	0
0	10	3.838205048753	1
0	18	8.629409516066	2
0	23	9.340172831351	3
0	28	13.838205048753	2
0	30	15.124490992476	3
0	40	23.78877405775	4
0	41	23.838205048753	3
0	42	24.838205048753	2
0	45	26.335703618088	3
0	50	32.892912202889	4
0	52	33.073813764996	5
0	56	38.838205048753	4
0	57	42.838205048753	3
0	61	44.355445589191	4
0	63	44.786684145305	5
0	64	44.838205048753	4
0	74	60.838205048753	3
0	80	63.310233110283	4
0	84	73.838205048753	3
0	86	74.838205048753	2
0	87	84.838205048753	1
0	89	87.682635133981	2
0	91	90.088279101137	3
1	0	0	0
1	2	0.003932486542	1
1	11	5.003932486542	0
1	14	6.096430950124	1
1	16	6.129839095062	2
1	20	8.954885524937	3
1	24	11.096430950124	2
1	27	11.97874399118	3
1	31	16.096430950124	2
1	34	16.404971341669	3
1	35	17.096430950124	2
1	38	23.677760419999	3
1	47	29.476230873208	4
1	55	33.524452717227	5
1	58	44.096430950124	4
1	65	49.096430950124	3
1	66	51.096430950124	2
1	69	53.47804929856	3
1	70	56.096430950124	2
1	73	60.818266535036	3
1	75	61.096430950124	2
1	78	61.287109042329	3
1	83	68.659033605903	4
1	85	74.096430950124	3
1	92	94.096430950124	2
1	94	96.99926578155	3
2	7	1.021786233996	1
2	8	2.021786233996	1.870327786805
2	28	13.838205048753	10
2	41	23.838205048753	15.208795532687
2	42	24.838205048753	15.598032217402
2	56	38.838205048753	23.713714056277
2	57	42.838205048753	19.049430991003
2	64	44.838205048753	18.602501430665
2	74	60.838205048753	28.045292845864
2	84	73.838205048753	40.764391283757
2	86	74.838205048753	30.582759459562
2	87	84.838205048753	40.051520903448
3	11	5.003932486542	5
3	24	11.096430950124	5.1
3	31	16.096430950124	9.966591855062
3	35	17.096430950124	8.141545425187
3	58	44.096430950124	32.217686958944
3	65	49.096430950124	32.791459608455
3	66	51.096430950124	27.518670530125
3	70	56.096430950124	26.620200076916
3	75	61.096430950124	27.671978232897
3	85	74.096430950124	20.718381651564
3	92	94.096430950124	33.378164415088

